M 0.00000 0 (1051.65, 579.94, 0.00), (1051.65, 579.94), 9.60
s 0.003091411 _0_ RTR  --- 0 message 32 [0 0 0 0] ------- [0:255 -1:255 32 0] 
r 0.004211697 _25_ RTR  --- 0 message 32 [0 ffffffff 0 800] ------- [0:255 -1:255 32 0] 
r 0.004212054 _6_ RTR  --- 0 message 32 [0 ffffffff 0 800] ------- [0:255 -1:255 32 0] 
r 0.004212184 _18_ RTR  --- 0 message 32 [0 ffffffff 0 800] ------- [0:255 -1:255 32 0] 
s 0.037458776 _2_ RTR  --- 1 message 32 [0 0 0 0] ------- [2:255 -1:255 32 0] 
r 0.038559392 _20_ RTR  --- 1 message 32 [0 ffffffff 2 800] ------- [2:255 -1:255 32 0] 
s 0.087462768 _13_ RTR  --- 2 message 32 [0 0 0 0] ------- [13:255 -1:255 32 0] 
r 0.088503341 _12_ RTR  --- 2 message 32 [0 ffffffff d 800] ------- [13:255 -1:255 32 0] 
r 0.088503524 _7_ RTR  --- 2 message 32 [0 ffffffff d 800] ------- [13:255 -1:255 32 0] 
s 0.177365656 _3_ RTR  --- 3 message 32 [0 0 0 0] ------- [3:255 -1:255 32 0] 
r 0.178306480 _1_ RTR  --- 3 message 32 [0 ffffffff 3 800] ------- [3:255 -1:255 32 0] 
r 0.178306486 _9_ RTR  --- 3 message 32 [0 ffffffff 3 800] ------- [3:255 -1:255 32 0] 
s 0.191634337 _19_ RTR  --- 4 message 32 [0 0 0 0] ------- [19:255 -1:255 32 0] 
r 0.192635046 _23_ RTR  --- 4 message 32 [0 ffffffff 13 800] ------- [19:255 -1:255 32 0] 
s 0.234603229 _15_ RTR  --- 5 message 32 [0 0 0 0] ------- [15:255 -1:255 32 0] 
s 0.333839210 _12_ RTR  --- 6 message 32 [0 0 0 0] ------- [12:255 -1:255 32 0] 
r 0.334739783 _13_ RTR  --- 6 message 32 [0 ffffffff c 800] ------- [12:255 -1:255 32 0] 
s 0.351472650 _18_ RTR  --- 7 message 32 [0 0 0 0] ------- [18:255 -1:255 32 0] 
r 0.352593304 _28_ RTR  --- 7 message 32 [0 ffffffff 12 800] ------- [18:255 -1:255 32 0] 
r 0.352593354 _25_ RTR  --- 7 message 32 [0 ffffffff 12 800] ------- [18:255 -1:255 32 0] 
r 0.352593424 _0_ RTR  --- 7 message 32 [0 ffffffff 12 800] ------- [18:255 -1:255 32 0] 
s 0.436386259 _29_ RTR  --- 8 message 32 [0 0 0 0] ------- [29:255 -1:255 32 0] 
r 0.437446831 _27_ RTR  --- 8 message 32 [0 ffffffff 1d 800] ------- [29:255 -1:255 32 0] 
r 0.437446905 _4_ RTR  --- 8 message 32 [0 ffffffff 1d 800] ------- [29:255 -1:255 32 0] 
r 0.437447078 _14_ RTR  --- 8 message 32 [0 ffffffff 1d 800] ------- [29:255 -1:255 32 0] 
s 0.470117073 _8_ RTR  --- 9 message 32 [0 0 0 0] ------- [8:255 -1:255 32 0] 
r 0.471397208 _21_ RTR  --- 9 message 32 [0 ffffffff 8 800] ------- [8:255 -1:255 32 0] 
r 0.471397271 _22_ RTR  --- 9 message 32 [0 ffffffff 8 800] ------- [8:255 -1:255 32 0] 
s 0.521504883 _22_ RTR  --- 10 message 32 [0 0 0 0] ------- [22:255 -1:255 32 0] 
r 0.522405082 _8_ RTR  --- 10 message 32 [0 ffffffff 16 800] ------- [22:255 -1:255 32 0] 
r 0.522405176 _21_ RTR  --- 10 message 32 [0 ffffffff 16 800] ------- [22:255 -1:255 32 0] 
s 0.626302117 _10_ RTR  --- 11 message 32 [0 0 0 0] ------- [10:255 -1:255 32 0] 
s 0.633203961 _6_ RTR  --- 12 message 32 [0 0 0 0] ------- [6:255 -1:255 32 0] 
r 0.634604461 _25_ RTR  --- 12 message 32 [0 ffffffff 6 800] ------- [6:255 -1:255 32 0] 
r 0.634604604 _0_ RTR  --- 12 message 32 [0 ffffffff 6 800] ------- [6:255 -1:255 32 0] 
s 0.703066137 _21_ RTR  --- 13 message 32 [0 0 0 0] ------- [21:255 -1:255 32 0] 
r 0.704426272 _8_ RTR  --- 13 message 32 [0 ffffffff 15 800] ------- [21:255 -1:255 32 0] 
r 0.704426429 _22_ RTR  --- 13 message 32 [0 ffffffff 15 800] ------- [21:255 -1:255 32 0] 
s 0.818871236 _23_ RTR  --- 14 message 32 [0 0 0 0] ------- [23:255 -1:255 32 0] 
r 0.820031782 _14_ RTR  --- 14 message 32 [0 ffffffff 17 800] ------- [23:255 -1:255 32 0] 
r 0.820031804 _17_ RTR  --- 14 message 32 [0 ffffffff 17 800] ------- [23:255 -1:255 32 0] 
r 0.820031945 _19_ RTR  --- 14 message 32 [0 ffffffff 17 800] ------- [23:255 -1:255 32 0] 
r 0.820031983 _4_ RTR  --- 14 message 32 [0 ffffffff 17 800] ------- [23:255 -1:255 32 0] 
s 0.847315218 _17_ RTR  --- 15 message 32 [0 0 0 0] ------- [17:255 -1:255 32 0] 
r 0.848315785 _23_ RTR  --- 15 message 32 [0 ffffffff 11 800] ------- [17:255 -1:255 32 0] 
r 0.848315925 _14_ RTR  --- 15 message 32 [0 ffffffff 11 800] ------- [17:255 -1:255 32 0] 
s 0.891466156 _4_ RTR  --- 16 message 32 [0 0 0 0] ------- [4:255 -1:255 32 0] 
r 0.892406504 _27_ RTR  --- 16 message 32 [0 ffffffff 4 800] ------- [4:255 -1:255 32 0] 
r 0.892406802 _29_ RTR  --- 16 message 32 [0 ffffffff 4 800] ------- [4:255 -1:255 32 0] 
r 0.892406892 _14_ RTR  --- 16 message 32 [0 ffffffff 4 800] ------- [4:255 -1:255 32 0] 
r 0.892406903 _23_ RTR  --- 16 message 32 [0 ffffffff 4 800] ------- [4:255 -1:255 32 0] 
s 0.932265375 _25_ RTR  --- 17 message 32 [0 0 0 0] ------- [25:255 -1:255 32 0] 
r 0.933225662 _0_ RTR  --- 17 message 32 [0 ffffffff 19 800] ------- [25:255 -1:255 32 0] 
r 0.933225876 _6_ RTR  --- 17 message 32 [0 ffffffff 19 800] ------- [25:255 -1:255 32 0] 
r 0.933226080 _18_ RTR  --- 17 message 32 [0 ffffffff 19 800] ------- [25:255 -1:255 32 0] 
r 0.933226130 _28_ RTR  --- 17 message 32 [0 ffffffff 19 800] ------- [25:255 -1:255 32 0] 
M 1.00000 0 (1051.65, 579.94, 0.00), (1051.65, 590.34), 10.40
M 1.00000 1 (301.65, 1361.14, 0.00), (301.65, 1361.14), 20.00
s 1.045355908 _24_ RTR  --- 18 message 32 [0 0 0 0] ------- [24:255 -1:255 32 0] 
r 1.046676672 _27_ RTR  --- 18 message 32 [0 ffffffff 18 800] ------- [24:255 -1:255 32 0] 
s 1.117914998 _1_ RTR  --- 19 message 32 [0 0 0 0] ------- [1:255 -1:255 32 0] 
r 1.118995822 _3_ RTR  --- 19 message 32 [0 ffffffff 1 800] ------- [1:255 -1:255 32 0] 
s 1.279806438 _9_ RTR  --- 20 message 32 [0 0 0 0] ------- [9:255 -1:255 32 0] 
r 1.281146949 _11_ RTR  --- 20 message 32 [0 ffffffff 9 800] ------- [9:255 -1:255 32 0] 
r 1.281147062 _16_ RTR  --- 20 message 32 [0 ffffffff 9 800] ------- [9:255 -1:255 32 0] 
r 1.281147268 _3_ RTR  --- 20 message 32 [0 ffffffff 9 800] ------- [9:255 -1:255 32 0] 
s 1.284507540 _14_ RTR  --- 21 message 32 [0 0 0 0] ------- [14:255 -1:255 32 0] 
r 1.285348085 _23_ RTR  --- 21 message 32 [0 ffffffff e 800] ------- [14:255 -1:255 32 0] 
r 1.285348247 _17_ RTR  --- 21 message 32 [0 ffffffff e 800] ------- [14:255 -1:255 32 0] 
r 1.285348276 _4_ RTR  --- 21 message 32 [0 ffffffff e 800] ------- [14:255 -1:255 32 0] 
r 1.285348358 _29_ RTR  --- 21 message 32 [0 ffffffff e 800] ------- [14:255 -1:255 32 0] 
s 1.388917713 _26_ RTR  --- 22 message 32 [0 0 0 0] ------- [26:255 -1:255 32 0] 
r 1.389758258 _28_ RTR  --- 22 message 32 [0 ffffffff 1a 800] ------- [26:255 -1:255 32 0] 
s 1.603158648 _5_ RTR  --- 23 message 32 [0 0 0 0] ------- [5:255 -1:255 32 0] 
r 1.604459416 _20_ RTR  --- 23 message 32 [0 ffffffff 5 800] ------- [5:255 -1:255 32 0] 
s 1.615642244 _20_ RTR  --- 24 message 32 [0 0 0 0] ------- [20:255 -1:255 32 0] 
r 1.616642861 _2_ RTR  --- 24 message 32 [0 ffffffff 14 800] ------- [20:255 -1:255 32 0] 
r 1.616643013 _5_ RTR  --- 24 message 32 [0 ffffffff 14 800] ------- [20:255 -1:255 32 0] 
s 1.641665551 _7_ RTR  --- 25 message 32 [0 0 0 0] ------- [7:255 -1:255 32 0] 
r 1.642586308 _13_ RTR  --- 25 message 32 [0 ffffffff 7 800] ------- [7:255 -1:255 32 0] 
s 1.674915381 _11_ RTR  --- 26 message 32 [0 0 0 0] ------- [11:255 -1:255 32 0] 
r 1.676315892 _9_ RTR  --- 26 message 32 [0 ffffffff b 800] ------- [11:255 -1:255 32 0] 
r 1.676315957 _16_ RTR  --- 26 message 32 [0 ffffffff b 800] ------- [11:255 -1:255 32 0] 
s 1.687590785 _28_ RTR  --- 27 message 32 [0 0 0 0] ------- [28:255 -1:255 32 0] 
r 1.688551330 _26_ RTR  --- 27 message 32 [0 ffffffff 1c 800] ------- [28:255 -1:255 32 0] 
r 1.688551440 _18_ RTR  --- 27 message 32 [0 ffffffff 1c 800] ------- [28:255 -1:255 32 0] 
r 1.688551540 _25_ RTR  --- 27 message 32 [0 ffffffff 1c 800] ------- [28:255 -1:255 32 0] 
s 1.723873826 _16_ RTR  --- 28 message 32 [0 0 0 0] ------- [16:255 -1:255 32 0] 
r 1.724874402 _11_ RTR  --- 28 message 32 [0 ffffffff 10 800] ------- [16:255 -1:255 32 0] 
r 1.724874450 _9_ RTR  --- 28 message 32 [0 ffffffff 10 800] ------- [16:255 -1:255 32 0] 
s 1.733148943 _27_ RTR  --- 29 message 32 [0 0 0 0] ------- [27:255 -1:255 32 0] 
r 1.734209291 _4_ RTR  --- 29 message 32 [0 ffffffff 1b 800] ------- [27:255 -1:255 32 0] 
r 1.734209515 _29_ RTR  --- 29 message 32 [0 ffffffff 1b 800] ------- [27:255 -1:255 32 0] 
r 1.734209707 _24_ RTR  --- 29 message 32 [0 ffffffff 1b 800] ------- [27:255 -1:255 32 0] 
M 2.00000 0 (1051.65, 590.34, 0.00), (1051.40, 596.98), 6.66
M 2.00000 1 (301.65, 1361.14, 0.00), (301.65, 1380.37), 19.23
M 2.00000 2 (160.88, 1.65, 0.00), (160.88, 1.65), 20.00
s 2.556838879 _0_ AGT  --- 30 cbr 512 [0 0 0 0] ------- [0:0 8:0 32 0] [0] 0 0
r 2.556838879 _0_ RTR  --- 30 cbr 512 [0 0 0 0] ------- [0:0 8:0 32 0] [0] 0 0
M 3.00000 0 (1051.40, 596.98, 0.00), (1044.89, 601.65), 8.93
M 3.00000 1 (301.65, 1380.37, 0.00), (301.65, 1399.41), 19.03
M 3.00000 2 (160.88, 1.65, 0.00), (180.17, 1.65), 19.29
M 3.00000 3 (490.56, 1201.65, 0.00), (490.56, 1201.65), 15.70
s 3.597070590 _0_ AGT  --- 31 cbr 512 [0 0 0 0] ------- [0:0 8:0 32 0] [1] 0 0
r 3.597070590 _0_ RTR  --- 31 cbr 512 [0 0 0 0] ------- [0:0 8:0 32 0] [1] 0 0
M 4.00000 0 (1044.89, 601.65, 0.00), (1033.96, 601.65), 10.93
M 4.00000 1 (301.65, 1399.40, 0.00), (301.65, 1419.40), 19.99
M 4.00000 2 (180.17, 1.65, 0.00), (199.29, 1.65), 19.13
M 4.00000 3 (490.56, 1201.65, 0.00), (475.70, 1201.65), 14.86
M 4.00000 4 (384.31, 598.35, 0.00), (384.31, 598.35), 20.00
s 4.632423195 _0_ AGT  --- 32 cbr 512 [0 0 0 0] ------- [0:0 8:0 32 0] [2] 0 0
r 4.632423195 _0_ RTR  --- 32 cbr 512 [0 0 0 0] ------- [0:0 8:0 32 0] [2] 0 0
M 5.00000 0 (1033.96, 601.65, 0.00), (1021.57, 601.65), 12.39
M 5.00000 1 (301.65, 1419.39, 0.00), (301.65, 1439.05), 19.66
M 5.00000 2 (199.29, 1.65, 0.00), (219.22, 1.65), 19.92
M 5.00000 3 (475.70, 1201.65, 0.00), (464.97, 1201.65), 10.73
M 5.00000 4 (384.31, 598.35, 0.00), (403.42, 598.35), 19.11
M 5.00000 5 (451.65, 11.24, 0.00), (451.65, 11.24), 20.00
s 5.198908247 _0_ AGT  --- 33 cbr 512 [0 0 0 0] ------- [0:0 8:0 32 0] [3] 0 0
r 5.198908247 _0_ RTR  --- 33 cbr 512 [0 0 0 0] ------- [0:0 8:0 32 0] [3] 0 0
M 6.00000 0 (1021.57, 601.65, 0.00), (1007.41, 601.65), 14.17
M 6.00000 1 (301.65, 1439.05, 0.00), (301.65, 1458.39), 19.33
M 6.00000 2 (219.21, 1.65, 0.00), (238.82, 1.65), 19.60
M 6.00000 3 (464.97, 1201.65, 0.00), (458.74, 1201.65), 6.23
M 6.00000 4 (403.42, 598.35, 0.00), (419.31, 598.35), 15.88
M 6.00000 5 (451.65, 11.24, 0.00), (451.65, 30.09), 18.85
M 6.00000 6 (1139.53, 751.65, 0.00), (1139.53, 751.65), 20.00
s 6.670738882 _0_ AGT  --- 34 cbr 512 [0 0 0 0] ------- [0:0 8:0 32 0] [4] 0 0
r 6.670738882 _0_ RTR  --- 34 cbr 512 [0 0 0 0] ------- [0:0 8:0 32 0] [4] 0 0
M 7.00000 0 (1007.41, 601.65, 0.00), (990.69, 601.65), 16.72
M 7.00000 1 (301.65, 1458.38, 0.00), (301.65, 1473.40), 15.01
M 7.00000 2 (238.81, 1.65, 0.00), (258.51, 1.65), 19.69
M 7.00000 3 (458.74, 1201.65, 0.00), (456.14, 1201.65), 2.59
M 7.00000 4 (419.30, 598.35, 0.00), (431.13, 598.35), 11.82
M 7.00000 5 (451.65, 30.09, 0.00), (451.65, 49.88), 19.79
M 7.00000 6 (1139.53, 751.65, 0.00), (1120.77, 751.65), 18.76
M 7.00000 7 (1341.06, 1201.65, 0.00), (1341.06, 1201.65), 20.00
s 7.688768734 _0_ AGT  --- 35 cbr 512 [0 0 0 0] ------- [0:0 8:0 32 0] [5] 0 0
r 7.688768734 _0_ RTR  --- 35 cbr 512 [0 0 0 0] ------- [0:0 8:0 32 0] [5] 0 0
D 7.688768734 _0_ RTR  IFQ 30 cbr 532 [0 0 0 0] ------- [0:0 8:0 32 0] [0] 0 0
M 8.00000 0 (990.69, 601.65, 0.00), (971.53, 601.65), 19.16
M 8.00000 1 (301.65, 1473.39, 0.00), (301.65, 1483.96), 10.56
M 8.00000 2 (258.50, 1.65, 0.00), (278.08, 1.65), 19.57
M 8.00000 3 (456.15, 1201.65, 0.00), (455.78, 1201.65), 0.37
M 8.00000 4 (431.12, 598.35, 0.00), (439.40, 598.35), 8.28
M 8.00000 5 (451.65, 49.88, 0.00), (451.65, 68.63), 18.75
M 8.00000 6 (1120.77, 751.65, 0.00), (1101.12, 751.65), 19.66
M 8.00000 7 (1341.06, 1201.65, 0.00), (1321.35, 1201.65), 19.71
M 8.00000 8 (28.35, 1048.35, 0.00), (28.35, 1048.35), 20.00
M 9.00000 0 (971.53, 601.65, 0.00), (952.59, 601.65), 18.94
M 9.00000 1 (301.65, 1483.95, 0.00), (301.65, 1490.61), 6.65
M 9.00000 2 (278.07, 1.65, 0.00), (297.76, 1.65), 19.69
M 9.00000 3 (455.78, 1201.65, 0.00), (455.75, 1201.65), 0.02
M 9.00000 4 (439.40, 598.35, 0.00), (443.21, 598.35), 3.80
M 9.00000 5 (451.65, 68.63, 0.00), (451.65, 87.70), 19.07
M 9.00000 6 (1101.12, 751.65, 0.00), (1083.82, 751.65), 17.30
M 9.00000 7 (1321.35, 1201.65, 0.00), (1302.25, 1201.65), 19.10
M 9.00000 8 (28.35, 1048.35, 0.00), (47.13, 1048.35), 18.78
M 9.00000 9 (739.62, 1198.35, 0.00), (739.62, 1198.35), 5.06
s 9.069748314 _0_ AGT  --- 36 cbr 512 [0 0 0 0] ------- [0:0 8:0 32 0] [6] 0 0
r 9.069748314 _0_ RTR  --- 36 cbr 512 [0 0 0 0] ------- [0:0 8:0 32 0] [6] 0 0
D 9.069748314 _0_ RTR  IFQ 31 cbr 532 [0 0 0 0] ------- [0:0 8:0 32 0] [1] 0 0
M 10.00000 0 (952.59, 601.65, 0.00), (934.86, 601.65), 17.73
M 10.00000 1 (301.65, 1490.60, 0.00), (301.65, 1493.85), 3.24
M 10.00000 10 (968.43, 301.65, 0.00), (968.43, 301.65), 20.00
M 10.00000 2 (297.76, 1.65, 0.00), (317.73, 1.65), 19.96
M 10.00000 3 (455.76, 1201.65, 0.00), (455.75, 1201.65), 0.00
M 10.00000 4 (443.20, 598.35, 0.00), (444.16, 598.35), 0.95
M 10.00000 5 (451.65, 87.70, 0.00), (451.65, 106.45), 18.76
M 10.00000 6 (1083.82, 751.65, 0.00), (1070.29, 751.65), 13.53
M 10.00000 7 (1302.25, 1201.65, 0.00), (1283.08, 1201.65), 19.17
M 10.00000 8 (47.13, 1048.35, 0.00), (66.93, 1048.35), 19.80
M 10.00000 9 (739.62, 1198.35, 0.00), (743.82, 1198.35), 4.20
s 10.299535717 _0_ AGT  --- 37 cbr 512 [0 0 0 0] ------- [0:0 8:0 32 0] [7] 0 0
r 10.299535717 _0_ RTR  --- 37 cbr 512 [0 0 0 0] ------- [0:0 8:0 32 0] [7] 0 0
D 10.299535717 _0_ RTR  IFQ 32 cbr 532 [0 0 0 0] ------- [0:0 8:0 32 0] [2] 0 0
M 11.00000 0 (934.86, 601.65, 0.00), (920.92, 601.65), 13.94
M 11.00000 1 (301.65, 1493.84, 0.00), (301.65, 1494.06), 0.21
M 11.00000 10 (968.43, 301.65, 0.00), (948.49, 301.65), 19.94
M 11.00000 11 (734.01, 1351.65, 0.00), (734.01, 1351.65), 20.00
M 11.00000 2 (317.72, 1.65, 0.00), (337.49, 1.65), 19.77
M 11.00000 3 (455.76, 1201.65, 0.00), (455.75, 1201.65), 0.00
M 11.00000 4 (444.15, 598.35, 0.00), (444.21, 598.35), 0.04
M 11.00000 5 (451.65, 106.45, 0.00), (451.65, 123.07), 16.62
M 11.00000 6 (1070.29, 751.65, 0.00), (1061.26, 751.65), 9.03
M 11.00000 7 (1283.08, 1201.65, 0.00), (1263.20, 1201.65), 19.89
M 11.00000 8 (66.93, 1048.35, 0.00), (86.20, 1048.35), 19.26
M 11.00000 9 (743.82, 1198.35, 0.00), (744.20, 1198.35), 0.38
s 11.062396598 _0_ AGT  --- 38 cbr 512 [0 0 0 0] ------- [0:0 8:0 32 0] [8] 0 0
r 11.062396598 _0_ RTR  --- 38 cbr 512 [0 0 0 0] ------- [0:0 8:0 32 0] [8] 0 0
D 11.062396598 _0_ RTR  IFQ 33 cbr 532 [0 0 0 0] ------- [0:0 8:0 32 0] [3] 0 0
s 11.652752128 _3_ RTR  --- 39 message 32 [0 0 0 0] ------- [3:255 -1:255 32 0] 
s 11.901534378 _19_ RTR  --- 40 message 32 [0 0 0 0] ------- [19:255 -1:255 32 0] 
r 11.902695087 _23_ RTR  --- 40 message 32 [0 ffffffff 13 800] ------- [19:255 -1:255 32 0] 
r 11.902695132 _0_ RTR  --- 40 message 32 [0 ffffffff 13 800] ------- [19:255 -1:255 32 0] 
r 11.902695190 _10_ RTR  --- 40 message 32 [0 ffffffff 13 800] ------- [19:255 -1:255 32 0] 
M 12.00000 0 (920.92, 601.65, 0.00), (911.48, 601.65), 9.44
M 12.00000 1 (301.65, 1494.05, 0.00), (301.65, 1494.18), 0.12
M 12.00000 10 (948.49, 301.65, 0.00), (931.82, 301.65), 16.67
M 12.00000 11 (734.01, 1351.65, 0.00), (714.55, 1351.65), 19.46
M 12.00000 12 (1406.06, 898.35, 0.00), (1406.06, 898.35), 20.00
M 12.00000 2 (337.49, 1.65, 0.00), (356.42, 1.65), 18.93
M 12.00000 3 (455.76, 1201.65, 0.00), (455.75, 1201.65), 0.00
M 12.00000 4 (444.19, 598.35, 0.00), (444.24, 598.35), 0.04
M 12.00000 5 (451.65, 123.07, 0.00), (451.65, 135.19), 12.12
M 12.00000 6 (1061.26, 751.65, 0.00), (1056.73, 751.65), 4.53
M 12.00000 7 (1263.20, 1201.65, 0.00), (1243.99, 1201.65), 19.20
M 12.00000 8 (86.19, 1048.35, 0.00), (105.69, 1048.35), 19.49
M 12.00000 9 (744.20, 1198.35, 0.00), (744.24, 1198.35), 0.03
s 12.007016469 _18_ RTR  --- 43 message 32 [0 0 0 0] ------- [18:255 -1:255 32 0] 
r 12.008337123 _28_ RTR  --- 43 message 32 [0 ffffffff 12 800] ------- [18:255 -1:255 32 0] 
r 12.008337173 _25_ RTR  --- 43 message 32 [0 ffffffff 12 800] ------- [18:255 -1:255 32 0] 
s 12.010766114 _25_ RTR  --- 41 message 32 [0 0 0 0] ------- [25:255 -1:255 32 0] 
r 12.012186671 _6_ RTR  --- 41 message 32 [0 ffffffff 19 800] ------- [25:255 -1:255 32 0] 
r 12.012186818 _18_ RTR  --- 41 message 32 [0 ffffffff 19 800] ------- [25:255 -1:255 32 0] 
r 12.012186828 _0_ RTR  --- 41 message 32 [0 ffffffff 19 800] ------- [25:255 -1:255 32 0] 
r 12.012186868 _28_ RTR  --- 41 message 32 [0 ffffffff 19 800] ------- [25:255 -1:255 32 0] 
s 12.012757609 _6_ RTR  --- 42 message 32 [0 0 0 0] ------- [6:255 -1:255 32 0] 
r 12.014138166 _25_ RTR  --- 42 message 32 [0 ffffffff 6 800] ------- [6:255 -1:255 32 0] 
r 12.014138293 _0_ RTR  --- 42 message 32 [0 ffffffff 6 800] ------- [6:255 -1:255 32 0] 
s 12.041912769 _0_ AGT  --- 45 cbr 512 [0 0 0 0] ------- [0:0 8:0 32 0] [9] 0 0
r 12.041912769 _0_ RTR  --- 45 cbr 512 [0 0 0 0] ------- [0:0 8:0 32 0] [9] 0 0
D 12.041912769 _0_ RTR  IFQ 34 cbr 532 [0 0 0 0] ------- [0:0 8:0 32 0] [4] 0 0
s 12.042150733 _20_ RTR  --- 44 message 32 [0 0 0 0] ------- [20:255 -1:255 32 0] 
r 12.043271284 _2_ RTR  --- 44 message 32 [0 ffffffff 14 800] ------- [20:255 -1:255 32 0] 
r 12.043271350 _5_ RTR  --- 44 message 32 [0 ffffffff 14 800] ------- [20:255 -1:255 32 0] 
s 12.095587045 _7_ RTR  --- 47 message 32 [0 0 0 0] ------- [7:255 -1:255 32 0] 
s 12.096725450 _12_ RTR  --- 46 message 32 [0 0 0 0] ------- [12:255 -1:255 32 0] 
r 12.097642738 _13_ RTR  --- 46 message 32 [0 ffffffff c 800] ------- [12:255 -1:255 32 0] 
s 12.179604895 _1_ RTR  --- 48 message 32 [0 0 0 0] ------- [1:255 -1:255 32 0] 
s 12.184108808 _9_ RTR  --- 49 message 32 [0 0 0 0] ------- [9:255 -1:255 32 0] 
r 12.185029321 _11_ RTR  --- 49 message 32 [0 ffffffff 9 800] ------- [9:255 -1:255 32 0] 
r 12.185029420 _16_ RTR  --- 49 message 32 [0 ffffffff 9 800] ------- [9:255 -1:255 32 0] 
s 12.255353378 _4_ RTR  --- 51 message 32 [0 0 0 0] ------- [4:255 -1:255 32 0] 
r 12.256273926 _23_ RTR  --- 51 message 32 [0 ffffffff 4 800] ------- [4:255 -1:255 32 0] 
r 12.256273926 _27_ RTR  --- 51 message 32 [0 ffffffff 4 800] ------- [4:255 -1:255 32 0] 
r 12.256273986 _14_ RTR  --- 51 message 32 [0 ffffffff 4 800] ------- [4:255 -1:255 32 0] 
r 12.256274135 _29_ RTR  --- 51 message 32 [0 ffffffff 4 800] ------- [4:255 -1:255 32 0] 
s 12.343122740 _13_ RTR  --- 52 message 32 [0 0 0 0] ------- [13:255 -1:255 32 0] 
r 12.344463313 _12_ RTR  --- 52 message 32 [0 ffffffff d 800] ------- [13:255 -1:255 32 0] 
s 12.352792767 _0_ RTR  --- 54 message 32 [0 0 0 0] ------- [0:255 -1:255 32 0] 
r 12.353873417 _17_ RTR  --- 54 message 32 [0 ffffffff 0 800] ------- [0:255 -1:255 32 0] 
r 12.353873455 _6_ RTR  --- 54 message 32 [0 ffffffff 0 800] ------- [0:255 -1:255 32 0] 
r 12.353873491 _25_ RTR  --- 54 message 32 [0 ffffffff 0 800] ------- [0:255 -1:255 32 0] 
r 12.353873510 _19_ RTR  --- 54 message 32 [0 ffffffff 0 800] ------- [0:255 -1:255 32 0] 
s 12.355290859 _28_ RTR  --- 53 message 32 [0 0 0 0] ------- [28:255 -1:255 32 0] 
r 12.356471404 _26_ RTR  --- 53 message 32 [0 ffffffff 1c 800] ------- [28:255 -1:255 32 0] 
r 12.356471514 _18_ RTR  --- 53 message 32 [0 ffffffff 1c 800] ------- [28:255 -1:255 32 0] 
r 12.356471614 _25_ RTR  --- 53 message 32 [0 ffffffff 1c 800] ------- [28:255 -1:255 32 0] 
s 12.410254909 _17_ RTR  --- 55 message 32 [0 0 0 0] ------- [17:255 -1:255 32 0] 
r 12.411175477 _23_ RTR  --- 55 message 32 [0 ffffffff 11 800] ------- [17:255 -1:255 32 0] 
r 12.411175557 _0_ RTR  --- 55 message 32 [0 ffffffff 11 800] ------- [17:255 -1:255 32 0] 
r 12.411175616 _14_ RTR  --- 55 message 32 [0 ffffffff 11 800] ------- [17:255 -1:255 32 0] 
s 12.440979470 _14_ RTR  --- 57 message 32 [0 0 0 0] ------- [14:255 -1:255 32 0] 
r 12.442060016 _23_ RTR  --- 57 message 32 [0 ffffffff e 800] ------- [14:255 -1:255 32 0] 
r 12.442060078 _4_ RTR  --- 57 message 32 [0 ffffffff e 800] ------- [14:255 -1:255 32 0] 
r 12.442060177 _17_ RTR  --- 57 message 32 [0 ffffffff e 800] ------- [14:255 -1:255 32 0] 
r 12.442060289 _29_ RTR  --- 57 message 32 [0 ffffffff e 800] ------- [14:255 -1:255 32 0] 
s 12.446430112 _27_ RTR  --- 56 message 32 [0 0 0 0] ------- [27:255 -1:255 32 0] 
r 12.447670660 _4_ RTR  --- 56 message 32 [0 ffffffff 1b 800] ------- [27:255 -1:255 32 0] 
r 12.447670684 _29_ RTR  --- 56 message 32 [0 ffffffff 1b 800] ------- [27:255 -1:255 32 0] 
r 12.447670876 _24_ RTR  --- 56 message 32 [0 ffffffff 1b 800] ------- [27:255 -1:255 32 0] 
s 12.476448261 _21_ RTR  --- 58 message 32 [0 0 0 0] ------- [21:255 -1:255 32 0] 
r 12.477368351 _8_ RTR  --- 58 message 32 [0 ffffffff 15 800] ------- [21:255 -1:255 32 0] 
r 12.477368554 _22_ RTR  --- 58 message 32 [0 ffffffff 15 800] ------- [21:255 -1:255 32 0] 
s 12.477822371 _22_ RTR  --- 59 message 32 [0 0 0 0] ------- [22:255 -1:255 32 0] 
r 12.479162664 _21_ RTR  --- 59 message 32 [0 ffffffff 16 800] ------- [22:255 -1:255 32 0] 
r 12.479162731 _8_ RTR  --- 59 message 32 [0 ffffffff 16 800] ------- [22:255 -1:255 32 0] 
s 12.522760420 _8_ RTR  --- 60 message 32 [0 0 0 0] ------- [8:255 -1:255 32 0] 
r 12.524180513 _21_ RTR  --- 60 message 32 [0 ffffffff 8 800] ------- [8:255 -1:255 32 0] 
r 12.524180782 _22_ RTR  --- 60 message 32 [0 ffffffff 8 800] ------- [8:255 -1:255 32 0] 
s 12.592167115 _9_ RTR  --- 61 message 44 [0 0 0 0] ------- [9:255 -1:255 32 0] 
r 12.593603632 _11_ RTR  --- 61 message 44 [0 ffffffff 9 800] ------- [9:255 -1:255 32 0] 
r 12.593603727 _16_ RTR  --- 61 message 44 [0 ffffffff 9 800] ------- [9:255 -1:255 32 0] 
s 12.756250149 _0_ AGT  --- 62 cbr 512 [0 0 0 0] ------- [0:0 8:0 32 0] [10] 0 0
r 12.756250149 _0_ RTR  --- 62 cbr 512 [0 0 0 0] ------- [0:0 8:0 32 0] [10] 0 0
D 12.756250149 _0_ RTR  IFQ 35 cbr 532 [0 0 0 0] ------- [0:0 8:0 32 0] [5] 0 0
s 12.802159751 _2_ RTR  --- 63 message 32 [0 0 0 0] ------- [2:255 -1:255 32 0] 
r 12.803120299 _5_ RTR  --- 63 message 32 [0 ffffffff 2 800] ------- [2:255 -1:255 32 0] 
r 12.803120324 _20_ RTR  --- 63 message 32 [0 ffffffff 2 800] ------- [2:255 -1:255 32 0] 
s 12.907685236 _19_ RTR  --- 67 message 32 [0 0 0 0] ------- [19:255 -1:255 32 0] 
r 12.908945945 _23_ RTR  --- 67 message 32 [0 ffffffff 13 800] ------- [19:255 -1:255 32 0] 
r 12.908945967 _0_ RTR  --- 67 message 32 [0 ffffffff 13 800] ------- [19:255 -1:255 32 0] 
r 12.908946004 _10_ RTR  --- 67 message 32 [0 ffffffff 13 800] ------- [19:255 -1:255 32 0] 
s 12.937781857 _24_ RTR  --- 68 message 32 [0 0 0 0] ------- [24:255 -1:255 32 0] 
r 12.938842621 _27_ RTR  --- 68 message 32 [0 ffffffff 18 800] ------- [24:255 -1:255 32 0] 
M 13.00000 0 (911.48, 601.65, 0.00), (906.40, 601.65), 5.08
M 13.00000 1 (301.65, 1494.17, 0.00), (301.65, 1494.22), 0.03
M 13.00000 10 (931.82, 301.65, 0.00), (919.22, 301.65), 12.60
M 13.00000 11 (714.55, 1351.65, 0.00), (695.69, 1351.65), 18.86
M 13.00000 12 (1406.06, 898.35, 0.00), (1425.31, 898.35), 19.25
M 13.00000 13 (1501.65, 1041.24, 0.00), (1501.65, 1041.24), 4.01
M 13.00000 2 (356.42, 1.65, 0.00), (375.50, 1.65), 19.08
M 13.00000 3 (455.76, 1201.65, 0.00), (455.75, 1201.65), 0.00
M 13.00000 4 (444.23, 598.35, 0.00), (444.25, 598.35), 0.00
M 13.00000 5 (451.65, 135.19, 0.00), (451.65, 142.81), 7.62
M 13.00000 6 (1056.73, 751.65, 0.00), (1056.06, 751.65), 0.68
M 13.00000 7 (1244.00, 1201.65, 0.00), (1228.89, 1201.65), 15.11
M 13.00000 8 (105.68, 1048.35, 0.00), (121.44, 1048.35), 15.75
M 13.00000 9 (744.23, 1198.35, 0.00), (744.25, 1198.35), 0.01
s 13.010018598 _6_ RTR  --- 70 message 44 [0 0 0 0] ------- [6:255 -1:255 32 0] 
r 13.011495162 _25_ RTR  --- 70 message 44 [0 ffffffff 6 800] ------- [6:255 -1:255 32 0] 
r 13.011495294 _0_ RTR  --- 70 message 44 [0 ffffffff 6 800] ------- [6:255 -1:255 32 0] 
s 13.012770720 _25_ RTR  --- 69 message 56 [0 0 0 0] ------- [25:255 -1:255 32 0] 
s 13.013450146 _18_ RTR  --- 71 message 44 [0 0 0 0] ------- [18:255 -1:255 32 0] 
r 13.014043284 _6_ RTR  --- 69 message 56 [0 ffffffff 19 800] ------- [25:255 -1:255 32 0] 
r 13.014043424 _18_ RTR  --- 69 message 56 [0 ffffffff 19 800] ------- [25:255 -1:255 32 0] 
r 13.014043465 _0_ RTR  --- 69 message 56 [0 ffffffff 19 800] ------- [25:255 -1:255 32 0] 
r 13.014043474 _28_ RTR  --- 69 message 56 [0 ffffffff 19 800] ------- [25:255 -1:255 32 0] 
r 13.015370078 _28_ RTR  --- 71 message 44 [0 ffffffff 12 800] ------- [18:255 -1:255 32 0] 
r 13.015370128 _25_ RTR  --- 71 message 44 [0 ffffffff 12 800] ------- [18:255 -1:255 32 0] 
s 13.036120143 _7_ RTR  --- 72 message 44 [0 0 0 0] ------- [7:255 -1:255 32 0] 
s 13.128023309 _3_ RTR  --- 73 message 32 [0 0 0 0] ------- [3:255 -1:255 32 0] 
s 13.182304962 _12_ RTR  --- 74 message 44 [0 0 0 0] ------- [12:255 -1:255 32 0] 
r 13.183401528 _13_ RTR  --- 74 message 44 [0 ffffffff c 800] ------- [12:255 -1:255 32 0] 
s 13.258003875 _4_ RTR  --- 75 message 44 [0 0 0 0] ------- [4:255 -1:255 32 0] 
r 13.259060422 _23_ RTR  --- 75 message 44 [0 ffffffff 4 800] ------- [4:255 -1:255 32 0] 
r 13.259060423 _27_ RTR  --- 75 message 44 [0 ffffffff 4 800] ------- [4:255 -1:255 32 0] 
r 13.259060483 _14_ RTR  --- 75 message 44 [0 ffffffff 4 800] ------- [4:255 -1:255 32 0] 
r 13.259060632 _29_ RTR  --- 75 message 44 [0 ffffffff 4 800] ------- [4:255 -1:255 32 0] 
s 13.291225773 _23_ RTR  --- 78 message 32 [0 0 0 0] ------- [23:255 -1:255 32 0] 
s 13.291870080 _29_ RTR  --- 79 message 32 [0 0 0 0] ------- [29:255 -1:255 32 0] 
r 13.292326318 _14_ RTR  --- 78 message 32 [0 ffffffff 17 800] ------- [23:255 -1:255 32 0] 
r 13.292326320 _4_ RTR  --- 78 message 32 [0 ffffffff 17 800] ------- [23:255 -1:255 32 0] 
r 13.292326340 _17_ RTR  --- 78 message 32 [0 ffffffff 17 800] ------- [23:255 -1:255 32 0] 
r 13.292326482 _19_ RTR  --- 78 message 32 [0 ffffffff 17 800] ------- [23:255 -1:255 32 0] 
r 13.293661524 _27_ RTR  --- 79 message 32 [0 ffffffff 1d 800] ------- [29:255 -1:255 32 0] 
r 13.293661708 _4_ RTR  --- 79 message 32 [0 ffffffff 1d 800] ------- [29:255 -1:255 32 0] 
r 13.293661770 _14_ RTR  --- 79 message 32 [0 ffffffff 1d 800] ------- [29:255 -1:255 32 0] 
s 13.353409282 _0_ RTR  --- 81 message 56 [0 0 0 0] ------- [0:255 -1:255 32 0] 
r 13.354761910 _17_ RTR  --- 81 message 56 [0 ffffffff 0 800] ------- [0:255 -1:255 32 0] 
r 13.354761982 _6_ RTR  --- 81 message 56 [0 ffffffff 0 800] ------- [0:255 -1:255 32 0] 
r 13.354762006 _19_ RTR  --- 81 message 56 [0 ffffffff 0 800] ------- [0:255 -1:255 32 0] 
r 13.354762033 _25_ RTR  --- 81 message 56 [0 ffffffff 0 800] ------- [0:255 -1:255 32 0] 
s 13.357518470 _28_ RTR  --- 80 message 44 [0 0 0 0] ------- [28:255 -1:255 32 0] 
r 13.358735015 _26_ RTR  --- 80 message 44 [0 ffffffff 1c 800] ------- [28:255 -1:255 32 0] 
r 13.358735124 _18_ RTR  --- 80 message 44 [0 ffffffff 1c 800] ------- [28:255 -1:255 32 0] 
r 13.358735224 _25_ RTR  --- 80 message 44 [0 ffffffff 1c 800] ------- [28:255 -1:255 32 0] 
s 13.394742842 _25_ RTR  --- 82 message 68 [0 0 0 0] ------- [25:255 -1:255 32 0] 
r 13.396391406 _6_ RTR  --- 82 message 68 [0 ffffffff 19 800] ------- [25:255 -1:255 32 0] 
r 13.396391546 _18_ RTR  --- 82 message 68 [0 ffffffff 19 800] ------- [25:255 -1:255 32 0] 
r 13.396391593 _0_ RTR  --- 82 message 68 [0 ffffffff 19 800] ------- [25:255 -1:255 32 0] 
r 13.396391596 _28_ RTR  --- 82 message 68 [0 ffffffff 19 800] ------- [25:255 -1:255 32 0] 
s 13.413210283 _17_ RTR  --- 83 message 44 [0 0 0 0] ------- [17:255 -1:255 32 0] 
r 13.414466851 _23_ RTR  --- 83 message 44 [0 ffffffff 11 800] ------- [17:255 -1:255 32 0] 
r 13.414466909 _0_ RTR  --- 83 message 44 [0 ffffffff 11 800] ------- [17:255 -1:255 32 0] 
r 13.414466990 _14_ RTR  --- 83 message 44 [0 ffffffff 11 800] ------- [17:255 -1:255 32 0] 
s 13.442139112 _14_ RTR  --- 85 message 44 [0 0 0 0] ------- [14:255 -1:255 32 0] 
s 13.443256295 _27_ RTR  --- 84 message 32 [0 0 0 0] ------- [27:255 -1:255 32 0] 
r 13.443575657 _23_ RTR  --- 85 message 44 [0 ffffffff e 800] ------- [14:255 -1:255 32 0] 
r 13.443575720 _4_ RTR  --- 85 message 44 [0 ffffffff e 800] ------- [14:255 -1:255 32 0] 
r 13.443575819 _17_ RTR  --- 85 message 44 [0 ffffffff e 800] ------- [14:255 -1:255 32 0] 
r 13.443575930 _29_ RTR  --- 85 message 44 [0 ffffffff e 800] ------- [14:255 -1:255 32 0] 
r 13.445210669 _4_ RTR  --- 84 message 32 [0 ffffffff 1b 800] ------- [27:255 -1:255 32 0] 
r 13.445210693 _29_ RTR  --- 84 message 32 [0 ffffffff 1b 800] ------- [27:255 -1:255 32 0] 
r 13.445210885 _24_ RTR  --- 84 message 32 [0 ffffffff 1b 800] ------- [27:255 -1:255 32 0] 
s 13.476154373 _21_ RTR  --- 86 message 44 [0 0 0 0] ------- [21:255 -1:255 32 0] 
s 13.476244369 _22_ RTR  --- 87 message 44 [0 0 0 0] ------- [22:255 -1:255 32 0] 
r 13.477210522 _8_ RTR  --- 86 message 44 [0 ffffffff 15 800] ------- [21:255 -1:255 32 0] 
r 13.477210666 _22_ RTR  --- 86 message 44 [0 ffffffff 15 800] ------- [21:255 -1:255 32 0] 
r 13.478516958 _21_ RTR  --- 87 message 44 [0 ffffffff 16 800] ------- [22:255 -1:255 32 0] 
r 13.478517078 _8_ RTR  --- 87 message 44 [0 ffffffff 16 800] ------- [22:255 -1:255 32 0] 
s 13.521452899 _15_ RTR  --- 88 message 32 [0 0 0 0] ------- [15:255 -1:255 32 0] 
s 13.526498845 _8_ RTR  --- 89 message 44 [0 0 0 0] ------- [8:255 -1:255 32 0] 
r 13.527414996 _21_ RTR  --- 89 message 44 [0 ffffffff 8 800] ------- [8:255 -1:255 32 0] 
r 13.527415259 _22_ RTR  --- 89 message 44 [0 ffffffff 8 800] ------- [8:255 -1:255 32 0] 
s 13.573021906 _8_ RTR  --- 90 message 56 [0 0 0 0] ------- [8:255 -1:255 32 0] 
r 13.574594060 _21_ RTR  --- 90 message 56 [0 ffffffff 8 800] ------- [8:255 -1:255 32 0] 
r 13.574594323 _22_ RTR  --- 90 message 56 [0 ffffffff 8 800] ------- [8:255 -1:255 32 0] 
s 13.596271257 _23_ RTR  --- 91 message 44 [0 0 0 0] ------- [23:255 -1:255 32 0] 
r 13.597667803 _14_ RTR  --- 91 message 44 [0 ffffffff 17 800] ------- [23:255 -1:255 32 0] 
r 13.597667805 _4_ RTR  --- 91 message 44 [0 ffffffff 17 800] ------- [23:255 -1:255 32 0] 
r 13.597667825 _17_ RTR  --- 91 message 44 [0 ffffffff 17 800] ------- [23:255 -1:255 32 0] 